composition,current_density,overpotential,temperature
Ni57Fe24,1.9713262284783797,0.24234322876262382,64.06378610384073
Ni70Fe24,2.4966950227858993,0.33419890421931514,66.94425641295895
Ni58Fe18,2.366226662687115,0.28891908545065703,86.05228571840803
Ni59Fe29,1.785130399070383,0.29579621233116327,87.79391393868555
Ni74Fe18,1.342496106588144,0.322338180757469,72.58882148420432
Ni52Fe29,1.7723547294164654,0.20481431786843818,61.51867416807222
Ni74Fe20,2.071303236160464,0.3114141807733406,61.181755010784585
Ni55Fe11,0.7366723818467746,0.18904812059129839,77.21849598207031
Ni56Fe27,1.3198097793925765,0.21906839044897755,71.78685326679538
Ni76Fe11,2.179604571271234,0.21712209085396852,60.859572827329636
Ni76Fe26,1.267665903866088,0.3457050936778281,77.4975717693767
Ni60Fe21,1.643744542454373,0.32130744474958534,60.33907609767068
Ni76Fe28,1.6755387217243964,0.2902339723180519,83.6211587444782
Ni71Fe16,0.8689525062672787,0.295411352323078,69.19298468110115
Ni69Fe15,1.2244708833045768,0.2624145588805142,61.207740090276964
Ni70Fe10,1.1690225774838643,0.3394181334217038,77.65056662949459
Ni66Fe20,0.5523934170641296,0.2492517505764723,71.93053243299164
Ni71Fe27,0.5483835277827105,0.2261035419739789,89.21401240071448
Ni70Fe26,2.1633940873515467,0.18260706738631818,76.32595987511107
Ni56Fe26,1.0461416199456248,0.3072411304522116,68.25717543111026
Ni69Fe18,1.5361575324776309,0.2968887864151183,81.28316593901924
Ni66Fe29,1.097451147177546,0.22687100770482696,68.14476007628134
Ni71Fe17,2.381358490230681,0.15503868279184588,87.12729874222696
Ni66Fe16,1.0185935177315475,0.3177994655436021,71.2416591152213
Ni50Fe22,1.3593136254778702,0.15228359669081473,76.49605688328616
Ni79Fe28,2.2454605009692035,0.29073995592581015,61.517193114726865
Ni76Fe28,2.1838671335836173,0.3440514219452114,72.78363713856692
Ni79Fe26,0.8722028356925546,0.2375322656296407,84.97090618982985
Ni62Fe25,2.105286619591421,0.19699468099919054,84.16946416090026
Ni57Fe28,1.4163737734757853,0.2909742020086763,66.72955676560579
Ni67Fe10,1.4659377441707104,0.31342562840311705,66.78237213031689
Ni63Fe28,0.7669599448318876,0.25928606321556946,84.5191593663971
Ni64Fe27,0.6612030275142493,0.3434070550512292,87.91195260507976
Ni51Fe26,1.9558786139475304,0.16033374433159223,62.86082763819011
Ni67Fe15,1.4929223047105995,0.2509591196609056,73.50175918278676
Ni68Fe13,1.373701405230359,0.29369078946451,70.12362836892687
Ni50Fe17,1.9590164573047935,0.32252809422983575,86.12065366372317
Ni78Fe16,2.0310257979822195,0.185851122381558,62.50574744040056
Ni52Fe19,0.8178163353387071,0.3100006963527363,66.33377827674113
Ni59Fe28,1.7204502989552826,0.26054141514370904,82.57405012759483
Ni63Fe11,0.7707081645553711,0.22931073639799263,61.538815469436464
Ni77Fe10,2.002750172058091,0.1763430057158187,74.77606142142868
Ni72Fe27,1.813910312534279,0.32305915178178246,73.2632110403916
Ni56Fe17,2.413229242166916,0.18145464163594305,70.03203536966245
Ni50Fe12,0.6379160327128424,0.21195757184181985,71.83716945956772
Ni73Fe17,0.6141094423025086,0.20800910639248738,75.89821760790699
Ni71Fe24,1.0643741493864003,0.32428280683817085,64.8410207516515
Ni54Fe12,1.023411367471812,0.2845405988417796,77.15987634850778
Ni68Fe10,0.9939575981439996,0.30933627943827446,84.16296987899959
Ni77Fe24,2.3125091610420734,0.20009357975849978,82.80482789370477
Ni57Fe11,0.9990923996990122,0.27497481992139977,64.61699714081321
Ni52Fe23,1.043899452257262,0.2643491966287497,64.47748409224421
Ni73Fe23,2.0187965248359276,0.31656607535765424,68.0452310323474
Ni60Fe25,1.39947968490108,0.3312174120962521,70.83224179023111
Ni53Fe29,2.053421113910362,0.15243135429547736,72.25366744225448
Ni54Fe23,0.6307323151287705,0.28480398381175853,80.39091650500036
Ni72Fe25,1.4751423873467686,0.1603671598239458,61.700412964975065
Ni67Fe16,0.5672272003665653,0.2597717330154712,61.04018112678199
Ni59Fe16,0.625306406910709,0.20752654580873564,71.75731688831726
Ni50Fe28,2.3128749066888217,0.21135531990442824,80.91491076413942
Ni65Fe28,0.7784907422351903,0.2205917006904713,65.80306028869448
Ni53Fe27,1.5648413645504342,0.274258489809922,79.24513443768755
Ni51Fe10,1.322191205201413,0.21680999313375382,67.79484413820899
Ni64Fe14,1.1946866525176854,0.2965398101180561,86.58258326440549
Ni69Fe20,2.299666691374545,0.23090547711477394,86.8706983279985
Ni59Fe11,0.543646793550979,0.16367064006199172,68.9186161284398
Ni52Fe21,1.8275793723511782,0.3067519684968214,66.89981261889722
Ni69Fe14,2.426788868427101,0.2071516649185412,72.33911916198694
Ni54Fe15,1.6203363669236839,0.2365533759198525,67.21594755540445
Ni79Fe18,2.3736449240661837,0.28708877664438026,80.1715152987511
Ni51Fe21,0.6045157585720475,0.2164912314297424,84.78194053644856
Ni52Fe29,1.3375866381483228,0.16131713122934313,80.19276392733651
Ni75Fe21,1.0203155819241023,0.22478420940256272,84.73051341748048
Ni73Fe26,1.9616419299614596,0.3388897165388607,71.90976486622422
Ni59Fe23,2.4625941809944933,0.2783468794597116,64.68950912126583
Ni72Fe26,1.0130601248884956,0.28429582973344136,82.13852842192776
Ni67Fe28,1.808349202948149,0.27645643072752796,70.81423515424662
Ni66Fe23,0.8961952655194803,0.18979842779188735,80.13812475687398
Ni58Fe17,1.6306605091432198,0.233666772820456,68.11931825945297
Ni51Fe22,1.4278649733766724,0.30018795967266365,62.43688904420018
Ni74Fe16,2.444010659263074,0.17027457951063182,89.7774538646329
Ni58Fe20,1.7170545453929331,0.20557055521794243,64.68604523791798
Ni63Fe13,1.1990127441736376,0.2052638216931707,89.65262981890443
Ni75Fe22,0.7281915697758667,0.23640378551890118,89.31839797699342
Ni51Fe14,0.8024936574698691,0.346073748188437,83.81454311724119
Ni60Fe15,0.9506338599024702,0.16350050933676438,79.78268886245993
Ni67Fe19,1.001933322680596,0.253740198876119,77.33421150753254
Ni53Fe18,2.2012321156822754,0.18587293640244207,85.98304636133504
Ni55Fe11,1.6224455765650498,0.3441353090819488,68.68318564858464
Ni66Fe14,1.5467818227487329,0.17266070094549282,74.03043637454631
Ni74Fe15,0.7295377437384349,0.23072020047231823,78.58169908099507
Ni75Fe21,2.22027938669887,0.2975769969669212,72.33571427608473
Ni72Fe19,1.9456286064169674,0.29091088560548906,72.82459362270804
Ni71Fe15,0.6353367238000032,0.23454572737878643,69.90854002506254
Ni76Fe17,1.9156701944595373,0.21930483359054365,76.92695450053608
Ni51Fe21,1.5870764346852921,0.2295224757105741,85.51723584045348
Ni62Fe16,0.6634506914935565,0.20285525263172785,66.04585134018939
Ni59Fe22,1.416601283057313,0.19106658774135996,88.03299116260324
Ni66Fe23,1.469392574260094,0.24660793951177798,80.67262961244688
Ni51Fe20,0.8315490803265515,0.20370675121352144,84.6981963804009
Ni50Fe28,2.3913962940005646,0.20749233297945002,76.68572077890035
Ni70Fe13,2.199950742961324,0.28135121269491137,83.3855010427219
Ni68Fe20,1.8380446746582166,0.3437074663399784,60.48601192018402
Ni57Fe20,1.4245911220012144,0.270727440111875,84.55141274338605
Ni53Fe26,1.323531083169017,0.16539589341299324,61.204165772561
Ni76Fe16,1.8019469343019083,0.16511672277081338,86.69740129088588
Ni57Fe12,1.590863738813811,0.3402846441691132,89.7588824171593
Ni71Fe11,0.6245462117637712,0.20945815806146673,68.82202386530334
Ni72Fe24,1.5250052975406634,0.16841339721649506,66.3095566885738
Ni73Fe14,2.112807234465679,0.2698089174300763,82.96090091574122
Ni73Fe10,1.4184797551939161,0.2747297556580532,67.5907902276076
Ni75Fe13,0.6039131551085368,0.2797009640237376,85.9668714951661
Ni64Fe29,2.072556398768066,0.20348040557150826,63.0852777647243
Ni68Fe12,0.9027275642719488,0.153022136842895,63.77865589138075
Ni69Fe20,1.0172416697760776,0.34300307389089435,89.37454665301847
Ni66Fe22,0.8294127068645918,0.2001786091382205,80.21516694810015
Ni60Fe11,1.160430129742995,0.2852052576105095,85.40661673286859
Ni58Fe11,2.01350301137727,0.2913259739757419,69.72988132054554
Ni70Fe18,1.5387717190078747,0.27200148341589714,80.29451248561813
Ni58Fe17,0.9097625483014251,0.21258147884272963,77.82725481925792
Ni66Fe10,2.2556601563040815,0.20421925075281314,78.09450360368841
Ni74Fe20,2.259163709903058,0.2695336565405406,80.47597378613165
Ni57Fe19,2.241156850092014,0.32321912672233827,77.26077519387296
Ni74Fe16,0.9775924227630786,0.3393467457846791,72.87187107907998
Ni52Fe12,1.4024786883619762,0.17118116088075153,68.2776808314164
Ni67Fe14,2.46997931228175,0.18096572251954396,83.05743992739606
Ni61Fe21,2.0440249526199805,0.3389472517566159,66.78817290009559
Ni68Fe15,0.5543348424511196,0.29730704566695854,80.77062918463243
Ni51Fe21,0.6304091825209841,0.3265987649659546,66.9999846794798
Ni68Fe14,1.4278627536246655,0.1905265268270686,78.75990509863362
Ni61Fe26,2.3184404117231203,0.26751717422188037,82.41234801387087
Ni78Fe26,1.5774035959054284,0.29022791888349475,66.56141666719617
Ni59Fe26,1.4956250160685804,0.2860223770893945,61.79829902583925
Ni64Fe21,0.7109473999132612,0.2316303381733396,63.92921228982522
Ni79Fe25,1.813560209448588,0.1530789783382617,78.17990901813076
Ni73Fe28,2.1442063212004507,0.2665852113608526,85.48339218677206
Ni57Fe26,1.2608400150151247,0.20062030783592175,61.34990463706273
Ni72Fe14,2.051223701850655,0.24005084922857806,82.02453777124938
Ni71Fe25,2.428953307801623,0.34151620301676344,70.23955937850157
Ni55Fe17,0.9075329182553782,0.22980706352848693,74.35585109758567
Ni74Fe27,1.5466592623894826,0.3179603213328853,87.86578649536696
Ni74Fe21,1.074275916169151,0.18770812114985022,69.95914514207536
Ni64Fe18,2.0857088380676787,0.28449209960500577,73.96010801818458
Ni62Fe24,1.655186731762315,0.34540139088778865,60.410472442820435
Ni59Fe25,1.7691648351006075,0.17037862017458735,62.44796160014515
Ni56Fe26,2.095828319231788,0.1516639884454384,67.75774773404352
Ni72Fe16,1.2919409453249098,0.23671655852652285,60.83556722463223
Ni63Fe24,2.3301801368140866,0.16852509661027343,78.94125978144753
Ni70Fe16,1.56605773449228,0.2996768699352462,72.79195070404867
Ni58Fe28,0.815909645670696,0.33290973276971175,76.44435608184065
Ni65Fe17,1.891798236337605,0.23680419454175175,65.23941557688988
Ni67Fe27,2.086522700876509,0.2017423284310882,68.87796088309848
Ni79Fe29,1.1335233541350533,0.23688066380132194,79.91473424558176
Ni56Fe12,2.2143585139975057,0.2946895635700002,88.959081708912
Ni67Fe19,2.312286509531533,0.1518108323160742,61.51250320806628
Ni56Fe26,1.0538089747556179,0.2678907978969394,86.71152962565799
Ni63Fe12,2.4670429454304443,0.27265833697747577,77.30643603933626
Ni61Fe22,0.7814230560975168,0.2775376493791871,76.91758700266871
Ni51Fe12,0.9040313368049799,0.19840441599617542,75.00835605623281
Ni54Fe20,0.8684496784760523,0.29281054467562534,62.0818225771255
Ni57Fe21,2.287979420015741,0.16827829726635526,62.69630555208482
Ni56Fe24,1.8085851046499237,0.18985406729336016,78.02736016977258
Ni73Fe26,0.8042085664445457,0.32549400933089634,70.22875714306674
Ni53Fe22,1.380646836736698,0.29774463014531327,87.51804199733041
Ni67Fe10,1.730596050139604,0.15274911080226905,72.19771612078416
Ni65Fe22,0.6669281699787666,0.19967525207396003,64.29844376107923
Ni59Fe21,2.2648327368146774,0.1928812965986329,81.44156500506108
Ni79Fe11,2.1072070708830704,0.2041612656073945,68.80060264323029
Ni72Fe12,1.5104135471532765,0.19951195405597727,75.7641092206768
Ni59Fe11,2.434253230518341,0.16250525914856914,80.93498356515511
Ni79Fe22,1.3355219585501994,0.24178810331936407,87.0079233360621
Ni62Fe27,2.468220638072996,0.296546694957233,83.76573584405028
Ni52Fe16,1.8358399976072541,0.27134634494348725,80.29083203618173
Ni63Fe29,1.769342546507883,0.28457433371961594,80.38899547185432
Ni78Fe26,0.83190979059157,0.1662298357072478,88.3777393209626
Ni78Fe21,2.263855516609288,0.3402981420353574,68.87472292489608
Ni74Fe25,1.3549793758412303,0.31769836676860497,60.033362825885625
Ni73Fe21,0.8244668115649587,0.31101806369913254,68.15863678194596
Ni64Fe19,0.5252150399515181,0.3145967610083535,66.53674138880231
Ni79Fe16,1.6195113672767651,0.33654210162655224,79.85503755341995
Ni69Fe14,1.5547992442453527,0.2588507932227395,79.01134799296587
Ni50Fe26,1.9387072447383171,0.19005640357352516,77.80384148114172
Ni52Fe22,2.2805161060356043,0.2733567215705082,60.48730329628361
Ni63Fe27,0.658813169286059,0.2985762987335878,81.86334163351943
Ni53Fe27,1.9629929806807247,0.29758347867080504,69.70591237456475
Ni79Fe14,0.8748238881951644,0.254289804833376,79.95167967019893
Ni74Fe25,2.216354106314328,0.16369174386671562,76.6973528550646
Ni50Fe23,2.1381270277233124,0.22422258768602554,70.28192776283721
Ni64Fe18,1.5815875099710888,0.3341533216926714,64.03728801312323
Ni64Fe26,1.920485597246623,0.26688978195148516,62.832566929814426
Ni74Fe13,1.1287002263674968,0.25766638865114266,84.94554999336671
Ni61Fe14,1.4423357978656293,0.2037707028764387,87.55192626244674
Ni78Fe14,2.143273795420943,0.22368978398331577,79.49364140292899
Ni60Fe15,1.4185303943464278,0.3290692178306338,63.1030234458145
Ni56Fe23,1.2155965306508836,0.28329260950536717,72.06081650664723
Ni73Fe20,1.4884248945005998,0.3074774053504665,81.86817600315472
Ni79Fe22,2.1564985048744365,0.24086908461353101,83.39462652030204
Ni51Fe16,1.1704160947417455,0.27604944389123154,63.54655866873266
Ni69Fe13,0.8475231862714876,0.19967672174864148,60.00092156536147
Ni76Fe17,1.9240280406615615,0.29109216605669724,81.36411137641815
Ni69Fe28,2.151956425416164,0.23552026674066745,70.69788527958617
Ni62Fe23,0.7012749570470667,0.23850910296294908,67.63443994854781
Ni59Fe20,0.9797482255118894,0.2798644649153763,60.386924093685764
Ni51Fe18,0.7839439795219878,0.3372561242937853,76.208982202845
Ni66Fe12,1.1958828231643333,0.16280126932172417,85.53452206277944
Ni73Fe15,1.4007019578108253,0.31494864746940154,88.72894938817764
Ni54Fe14,1.997652673926613,0.2084766220824386,76.97234851839868
Ni71Fe24,1.8022951697633482,0.23878389090127555,75.43383983219682
Ni72Fe26,1.7418571349568623,0.15438266575500179,62.551691564677235
Ni58Fe12,1.2047498932193088,0.2102092155668626,76.46618404627799
Ni69Fe26,2.1828951061695197,0.25052624852602606,71.39937236896183
Ni78Fe19,1.4425743347963291,0.1612352154694878,78.21405842650731
Ni52Fe27,2.458209876030309,0.24821914587663302,71.6617904362964
Ni67Fe26,1.7682842765914737,0.33542212577168545,67.208973703511
Ni73Fe12,0.7525294831290055,0.17107864362156103,62.8489582568513
Ni52Fe15,1.852355124150868,0.30288814561510086,69.44755333766687
Ni62Fe24,1.150208030863398,0.2319342106751985,62.89934502863257
Ni74Fe18,1.8726543933721949,0.28103474290486763,65.30690852471952
Ni53Fe23,0.6392822963248115,0.20204731959704586,89.62008475738638
Ni54Fe11,0.8497628743519188,0.18189845250827164,73.32310670719856
Ni60Fe18,2.2114745178115727,0.18209252285424526,75.95615299515049
Ni73Fe12,0.9543591140470298,0.16409838912862892,86.20855586211647
Ni76Fe18,2.1740822504858803,0.18712934098024858,89.86706701472063
Ni52Fe11,1.0585521769088209,0.2828438769977937,77.48143348034044
Ni61Fe19,1.7857638201174153,0.3263381223687016,84.37421463132515
Ni58Fe24,1.888301147019662,0.31282513711823234,69.80823073010026
Ni57Fe14,1.5253095062901059,0.2870268619748968,69.17231872341873
Ni60Fe11,1.1106213533934626,0.17208637268222052,72.08111162983681
Ni73Fe24,0.9252887527421922,0.20783748925918996,80.17521788020947
Ni55Fe17,0.5663787091248524,0.21196137506449378,80.46575067765296
Ni76Fe14,1.1078928024814476,0.19999138927952423,69.45718303948352
Ni65Fe27,1.806325581062566,0.2530011319419446,63.99629772409886
Ni55Fe14,2.3766096368969656,0.2571107629759345,78.97188769396526
Ni77Fe25,2.242408964526104,0.22137719503422204,63.849775865662934
Ni62Fe14,2.032129553070605,0.2207578317472872,77.35477524687991
Ni62Fe26,2.0768946865065976,0.3157111195812162,80.80266384168927
Ni67Fe17,1.8299698069519905,0.3078585696639371,81.01834489183355
Ni62Fe28,1.020573715132006,0.21155916633614913,82.6041633197879
Ni75Fe12,2.3143900614116597,0.33275768877465184,86.18578264696994
Ni73Fe17,1.841464623811668,0.34056300340050116,74.99876975894365
Ni51Fe17,1.62088126196088,0.21534850840600817,81.90747568588714
Ni76Fe22,0.7219789384269621,0.22088498975861096,78.5751820609751
Ni62Fe10,1.3941110876128509,0.25112683068439173,65.59919819393048
Ni55Fe28,1.4207165424038526,0.3382241625067347,60.77068934608224
Ni65Fe17,2.22912721904534,0.3252638866284623,68.53624157030801
Ni77Fe10,1.593296440375577,0.17051359251671794,73.29101119012859
Ni76Fe25,1.2608010979408193,0.22854614865428324,78.5131783328597
Ni58Fe22,2.453600657021319,0.26067423794995437,85.49877991509616
Ni60Fe22,0.7214411866526313,0.250626494510308,65.88737150118497
Ni74Fe19,1.3450968566238892,0.1887726135873785,63.76649369695431
Ni53Fe15,0.5840493503428106,0.3217633542336309,88.90439842422983
Ni77Fe16,1.9798082415338607,0.28538815659936745,63.24133678129221
Ni54Fe20,2.336153104398301,0.3175816749703607,74.35473210321567
Ni62Fe28,1.0600746591009789,0.32175285586989444,77.56691186379905
Ni72Fe19,2.216683353598242,0.299671170733148,76.24123262722316
Ni59Fe20,1.0844364609237955,0.23784212024994345,62.5809647109883
Ni70Fe16,2.3215403232878304,0.27210935100308487,61.71080742010858
Ni67Fe13,2.007923807193568,0.1820730812239486,63.16450282383107
Ni51Fe23,2.1098135536828773,0.2847290834949815,77.56763051617838
Ni62Fe21,0.536013111200909,0.18585065114785615,76.33034662902963
Ni56Fe11,2.425620714148052,0.28878991810203136,67.01222376110233
Ni62Fe23,1.9533419841406465,0.19591963215079372,79.13322425536775
Ni76Fe26,1.1095021907722666,0.173510260030044,84.60202506166948
Ni58Fe26,2.1587893297176937,0.18305689802859149,61.24736879539781
Ni57Fe11,1.06304239682986,0.15039842704381404,74.94389830644127
Ni77Fe22,2.245507679132256,0.293747923570706,80.67931236308071
Ni52Fe25,0.725160780823874,0.2964802098116758,67.56935781209062
Ni55Fe28,1.9073719549215915,0.25298666998265185,69.23312715879447
Ni79Fe16,1.5813969532898207,0.18227256021107674,78.40913708968151
Ni59Fe18,0.6930689403908816,0.16671086750213793,86.9380588033121
Ni51Fe24,0.983787656517678,0.1538257932874574,84.29773260908698
Ni79Fe14,0.5248080725546296,0.18314963539304413,77.4939065729875
Ni78Fe13,1.4375359309290117,0.3281711069966293,81.90665153271748
Ni69Fe13,1.1025305215200008,0.19830736834033635,70.94467410623396
Ni67Fe13,1.6967149685955176,0.2208542654434431,79.22896584296274
Ni76Fe26,1.0944756154172344,0.17106909689626662,73.9854477338267
Ni61Fe26,1.0998382230139694,0.19447226094963405,65.69808409372683
Ni59Fe10,1.9863863974632068,0.253844914156041,81.05214821631772
Ni71Fe27,0.5962856719567069,0.2715505366191305,76.69393912046466
Ni67Fe23,2.3057899903839747,0.1990704628332422,70.75864745860774
Ni64Fe21,2.204527748782363,0.16154643184502343,87.34017570235892
Ni53Fe12,1.835609366452813,0.2282065738254797,60.628023534802
Ni69Fe21,1.6864431402147686,0.19684067418526682,69.47319453748489
Ni56Fe20,2.2846049962793042,0.19391078464596037,61.706441933329394
Ni50Fe15,0.8706603590574289,0.34197256054269104,82.99581948664881
Ni64Fe24,0.6579383243816572,0.27326009718514477,81.06322362341378
Ni68Fe20,0.9790203398190762,0.2613756886344192,69.94056656208951
Ni75Fe11,2.0891565574003805,0.23315502070466437,80.26988706621219
Ni63Fe11,0.5693405334529666,0.23578886668602883,71.87811678587849
Ni78Fe13,1.6656136701669793,0.25818100076761613,82.68761374267302
Ni66Fe12,2.49087503238262,0.2892859614072214,73.62550988210118
Ni62Fe18,2.211392187675079,0.2904292192363659,72.36839183494996
Ni56Fe24,1.542891378087179,0.1843387815410899,88.04189746464903
Ni72Fe20,0.6272818185732847,0.2500225504153254,67.52637299672101
Ni69Fe11,2.1627470287714194,0.23239161900682037,63.613420199896964
Ni64Fe23,1.697957016354421,0.32410539325387683,77.53629339778374
Ni69Fe20,0.7298659941191337,0.2762837842436753,89.07965436852537
Ni76Fe12,0.6877145696467124,0.25650081328319635,71.3351764118156
Ni66Fe21,2.319253638873185,0.17307892843578346,61.861102908863444
Ni73Fe24,1.8384005258761569,0.2711275778646823,70.17915801928703
Ni65Fe14,2.1585735986335113,0.17344078113604666,75.17794962958675
Ni76Fe29,2.257957800564535,0.2174413151131504,64.85769019896641
Ni55Fe28,1.6435447040966444,0.17856839296286636,79.74306654169476
Ni74Fe14,1.5348927035100826,0.2884147294048738,89.93248167030602
Ni52Fe10,1.3608548206419804,0.1912504227672305,73.55218427944331
Ni75Fe15,1.1338931755822386,0.2283718746376052,70.64185670190638