composition,current_density,overpotential,temperature
Ni64Fe11,1.3691919217174235,0.3291349555237557,72.021125005034
Ni78Fe12,2.0477593114603128,0.19086327667979405,63.45438535185603
Ni66Fe21,1.7038468620302631,0.2515610127917558,86.49820804278671
Ni67Fe24,2.285046579909692,0.2338543322332044,72.44476966564056
Ni61Fe25,1.3867600287583755,0.15362480820914595,71.61823234274524
Ni76Fe17,1.714179157437508,0.30855162271456255,79.79070818791423
Ni77Fe23,1.7626151061839774,0.16380918126291993,73.2610026279337
Ni74Fe26,1.683394324612651,0.2448510041953907,79.44700406423539
Ni78Fe17,1.9052675461710327,0.26213565898778995,61.84338870392362
Ni64Fe23,0.9748669367496126,0.2756852913229174,84.41170031166682
Ni67Fe29,1.5247275550915813,0.2877263258615751,88.21511858638208
Ni56Fe12,0.7084496056166953,0.200654476704543,79.46296158478158
Ni78Fe21,1.269022655289625,0.15199575533168988,88.63697786576432
Ni70Fe12,1.4753341372425288,0.2946887324709824,64.5429694310989
Ni69Fe23,1.804448519090945,0.2571313198695157,74.32248568441061
Ni64Fe23,2.4010621051724073,0.31722354064144975,78.05420201836341
Ni56Fe26,1.7013021330967117,0.31427767258013883,77.4520994226356
Ni79Fe21,1.9871878323531196,0.3186652335575766,72.0438533726713
Ni69Fe13,1.5125321189904055,0.24701893199590802,70.14253228098784
Ni58Fe15,1.7682080627526626,0.21672567916737312,63.80472067651257
Ni65Fe11,0.6418644322675469,0.308311640518274,71.75227351686834
Ni73Fe17,1.008783161683694,0.24025882260585096,64.87982445316456
Ni60Fe22,1.2237061864102774,0.1866884392806869,82.03097029476655
Ni66Fe17,1.4449867100130271,0.32099480391229485,66.2649280648377
Ni70Fe27,0.5912974910047675,0.3265119753544694,61.75695915853601
Ni79Fe27,0.7800481951066354,0.243261951228034,76.57098413451703
Ni63Fe24,1.0536286155826116,0.16513994546195748,77.85689198158205
Ni55Fe20,2.4430653818021013,0.22756521798338625,86.15739183841517
Ni62Fe10,1.1626940142061015,0.31070753189252065,77.30944837253045
Ni77Fe15,1.464082116224165,0.3303548057092457,70.36442561170337
Ni58Fe17,0.8921954254767859,0.19069454849951917,84.09035644578961
Ni60Fe28,1.7215601421515365,0.1633947224050543,76.20836679562262
Ni73Fe18,1.0613664310319486,0.32547009062656773,62.37840853893575
Ni66Fe21,0.9139851568768536,0.22788098779577504,76.97551680939739
Ni74Fe23,1.5331452568919581,0.25835219285351263,87.24055636264987
Ni64Fe25,0.5110115983208416,0.3436131624101518,71.88937876494661
Ni71Fe29,0.5153280652984507,0.16331294558284457,68.889774056994
Ni50Fe19,0.9381376182037156,0.27966360149041913,64.3040837105406
Ni57Fe27,0.5734427250016423,0.1648210845149734,64.54336565806072
Ni77Fe10,0.7160515082613828,0.22509378569330007,72.98314453025456
Ni51Fe10,1.1777212986775032,0.3107629090386893,77.87039472484588
Ni50Fe18,2.105171359159626,0.23669444655112687,62.41846215508805
Ni62Fe10,1.6440972867386017,0.34943647078059004,88.18705767075497
Ni62Fe29,1.5253354519128328,0.2618118569893204,82.65400852335588
Ni75Fe16,1.0869776464162433,0.21423243052719068,77.59871754850988
Ni51Fe15,2.363507438865633,0.19402226518095061,84.85316012816972
Ni56Fe23,1.2940300824743833,0.22010410685723236,62.405602704363396
Ni75Fe27,0.674185533591543,0.22450665475191015,74.30516633199373
Ni64Fe11,1.7341330322356026,0.16374273554479218,78.90279380584991
Ni59Fe21,0.7276767869532028,0.22391483988535463,84.85958718354868
Ni66Fe17,1.1904462856033842,0.24284770394784497,83.50408680147802
Ni60Fe12,1.5148238774356177,0.29454755044776093,68.312077491402
Ni76Fe15,2.2484450493703516,0.28134589694432155,88.22640508677613
Ni58Fe15,1.4870931606802373,0.29175313104583084,63.73037524292611
Ni58Fe16,1.9045175320633285,0.1516727363753714,86.25400855863457
Ni58Fe27,2.4856336779981407,0.1935334799161072,89.12820748813856
Ni61Fe17,0.7629782397959632,0.2823368576799713,65.31460569667877
Ni57Fe27,1.049463051039039,0.2467978736359494,81.66198192611355
Ni77Fe29,1.2891521511952928,0.15106269513366918,61.20856556333995
Ni79Fe24,1.3436563570776627,0.31089892848636447,72.16268475417465
Ni76Fe16,1.3220421505310915,0.3045619146580675,75.48849897593021
Ni60Fe29,2.31522200511311,0.2596838325987125,77.41935677728902
Ni65Fe13,1.9280652889337129,0.16329266515525442,88.07811744745678
Ni55Fe12,1.7158104281814075,0.30330300990651693,80.16752061882585
Ni58Fe19,1.1187454357255642,0.26674271754627277,74.4383385365771
Ni63Fe20,2.147580768442589,0.3063919954315918,84.29025108797669
Ni67Fe21,2.410121022969978,0.3003493984791681,88.51598462863227
Ni72Fe21,2.1423965651004533,0.3106004143915674,60.66198446046872
Ni62Fe22,0.5031302103829458,0.25360161328092495,89.47563816768115
Ni68Fe28,1.772802740366814,0.17806490363870298,62.58396417191041
Ni72Fe23,0.6022707628842014,0.2842314946759377,84.43160337806285
Ni53Fe22,1.0152144406674437,0.2740947570103941,68.41004257654238
Ni57Fe28,0.6190494006955434,0.2984506374398174,63.96538973261615
Ni61Fe27,1.7075909058987755,0.18397620121014704,73.19566919141505
Ni55Fe27,1.8731798269852136,0.18899503998005784,79.3186973834284
Ni68Fe14,0.7289752761318102,0.3280819034438657,71.42855535070424
Ni73Fe18,1.267677766089959,0.29999555969041414,61.63696224848097
Ni76Fe12,1.412473017911084,0.3316456977400646,77.9838341897615
Ni77Fe19,1.2381060435218332,0.30174306423278413,87.07209828332024
Ni68Fe12,0.7420500009703861,0.2694310611980604,71.49646097841755
Ni78Fe24,1.3378955803749508,0.2808265474055747,66.48998332892481
Ni50Fe16,2.002356095616836,0.32782558478800194,73.27732037798447